# Two class nanotubes hydrogenated 
    6176   atoms

   20 atom types
  -50.00000    50.00000  xlo xhi
  -50.00000    50.00000  ylo yhi
  -50.00000   341.34000  zlo zhi

 Masses

  1 12.01070
  2 12.01070
  3 12.01070
  4 12.01070
  5 12.01070
  6 12.01070
  7 12.01070
  8 12.01070
  9 12.01070
 10 12.01070
 11  1.00794
 12  1.00794
 13  1.00794
 14  1.00794
 15  1.00794
 16  1.00794
 17  1.00794
 18  1.00794
 19  1.00794
 20  1.00794

Atoms

       1     1    3.930    0.000    0.000
       2     1    3.730    1.210    0.710
       3     1    3.730    1.210    2.130
       4     1    3.180    2.310    2.840
       5     1    3.180    2.310    0.000
       6     1    2.310    3.180    0.710
       7     1    2.310    3.180    2.130
       8     1    1.210    3.730    2.840
       9     1    1.210    3.730    0.000
      10     1    0.000    3.930    0.710
      11     1    0.000    3.930    2.130
      12     1   -1.210    3.730    2.840
      13     1   -1.210    3.730    0.000
      14     1   -2.310    3.180    0.710
      15     1   -2.310    3.180    2.130
      16     1   -3.180    2.310    2.840
      17     1   -3.180    2.310    0.000
      18     1   -3.730    1.210    0.710
      19     1   -3.730    1.210    2.130
      20     1   -3.930    0.000    2.840
      21     1   -3.930    0.000    0.000
      22     1   -3.730   -1.210    0.710
      23     1   -3.730   -1.210    2.130
      24     1   -3.180   -2.310    2.840
      25     1   -3.180   -2.310    0.000
      26     1   -2.310   -3.180    0.710
      27     1   -2.310   -3.180    2.130
      28     1   -1.210   -3.730    2.840
      29     1   -1.210   -3.730    0.000
      30     1   -0.000   -3.930    0.710
      31     1   -0.000   -3.930    2.130
      32     1    1.210   -3.730    2.840
      33     1    1.210   -3.730    0.000
      34     1    2.310   -3.180    0.710
      35     1    2.310   -3.180    2.130
      36     1    3.180   -2.310    2.840
      37     1    3.180   -2.310    0.000
      38     1    3.730   -1.210    0.710
      39     1    3.730   -1.210    2.130
      40     1    3.930   -0.000    2.840
      41     1    3.930    0.000    4.250
      42     1    3.730    1.210    4.960
      43     1    3.730    1.210    6.380
      44     1    3.180    2.310    7.090
      45     1    3.180    2.310    4.250
      46     1    2.310    3.180    4.960
      47     1    2.310    3.180    6.380
      48     1    1.210    3.730    7.090
      49     1    1.210    3.730    4.250
      50     1    0.000    3.930    4.960
      51     1    0.000    3.930    6.380
      52     1   -1.210    3.730    7.090
      53     1   -1.210    3.730    4.250
      54     1   -2.310    3.180    4.960
      55     1   -2.310    3.180    6.380
      56     1   -3.180    2.310    7.090
      57     1   -3.180    2.310    4.250
      58     1   -3.730    1.210    4.960
      59     1   -3.730    1.210    6.380
      60     1   -3.930    0.000    7.090
      61     1   -3.930    0.000    4.250
      62     1   -3.730   -1.210    4.960
      63     1   -3.730   -1.210    6.380
      64     1   -3.180   -2.310    7.090
      65     1   -3.180   -2.310    4.250
      66     1   -2.310   -3.180    4.960
      67     1   -2.310   -3.180    6.380
      68     1   -1.210   -3.730    7.090
      69     1   -1.210   -3.730    4.250
      70     1   -0.000   -3.930    4.960
      71     1   -0.000   -3.930    6.380
      72     1    1.210   -3.730    7.090
      73     1    1.210   -3.730    4.250
      74     1    2.310   -3.180    4.960
      75     1    2.310   -3.180    6.380
      76     1    3.180   -2.310    7.090
      77     1    3.180   -2.310    4.250
      78     1    3.730   -1.210    4.960
      79     1    3.730   -1.210    6.380
      80     1    3.930   -0.000    7.090
      81     1    3.930    0.000    8.510
      82     1    3.730    1.210    9.220
      83     1    3.730    1.210   10.640
      84     1    3.180    2.310   11.340
      85     1    3.180    2.310    8.510
      86     1    2.310    3.180    9.220
      87     1    2.310    3.180   10.640
      88     1    1.210    3.730   11.340
      89     1    1.210    3.730    8.510
      90     1    0.000    3.930    9.220
      91     1    0.000    3.930   10.640
      92     1   -1.210    3.730   11.340
      93     1   -1.210    3.730    8.510
      94     1   -2.310    3.180    9.220
      95     1   -2.310    3.180   10.640
      96     1   -3.180    2.310   11.340
      97     1   -3.180    2.310    8.510
      98     1   -3.730    1.210    9.220
      99     1   -3.730    1.210   10.640
     100     1   -3.930    0.000   11.340
     101     1   -3.930    0.000    8.510
     102     1   -3.730   -1.210    9.220
     103     1   -3.730   -1.210   10.640
     104     1   -3.180   -2.310   11.340
     105     1   -3.180   -2.310    8.510
     106     1   -2.310   -3.180    9.220
     107     1   -2.310   -3.180   10.640
     108     1   -1.210   -3.730   11.340
     109     1   -1.210   -3.730    8.510
     110     1   -0.000   -3.930    9.220
     111     1   -0.000   -3.930   10.640
     112     1    1.210   -3.730   11.340
     113     1    1.210   -3.730    8.510
     114     1    2.310   -3.180    9.220
     115     1    2.310   -3.180   10.640
     116     1    3.180   -2.310   11.340
     117     1    3.180   -2.310    8.510
     118     1    3.730   -1.210    9.220
     119     1    3.730   -1.210   10.640
     120     1    3.930   -0.000   11.340
     121     1    3.930    0.000   12.760
     122     1    3.730    1.210   13.470
     123     1    3.730    1.210   14.890
     124     1    3.180    2.310   15.600
     125     1    3.180    2.310   12.760
     126     1    2.310    3.180   13.470
     127     1    2.310    3.180   14.890
     128     1    1.210    3.730   15.600
     129     1    1.210    3.730   12.760
     130     1    0.000    3.930   13.470
     131     1    0.000    3.930   14.890
     132     1   -1.210    3.730   15.600
     133     1   -1.210    3.730   12.760
     134     1   -2.310    3.180   13.470
     135     1   -2.310    3.180   14.890
     136     1   -3.180    2.310   15.600
     137     1   -3.180    2.310   12.760
     138     1   -3.730    1.210   13.470
     139     1   -3.730    1.210   14.890
     140     1   -3.930    0.000   15.600
     141     1   -3.930    0.000   12.760
     142     1   -3.730   -1.210   13.470
     143     1   -3.730   -1.210   14.890
     144     1   -3.180   -2.310   15.600
     145     1   -3.180   -2.310   12.760
     146     1   -2.310   -3.180   13.470
     147     1   -2.310   -3.180   14.890
     148     1   -1.210   -3.730   15.600
     149     1   -1.210   -3.730   12.760
     150     1   -0.000   -3.930   13.470
     151     1   -0.000   -3.930   14.890
     152     1    1.210   -3.730   15.600
     153     1    1.210   -3.730   12.760
     154     1    2.310   -3.180   13.470
     155     1    2.310   -3.180   14.890
     156     1    3.180   -2.310   15.600
     157     1    3.180   -2.310   12.760
     158     1    3.730   -1.210   13.470
     159     1    3.730   -1.210   14.890
     160     1    3.930   -0.000   15.600
     161     1    3.930    0.000   17.020
     162     1    3.730    1.210   17.730
     163     1    3.730    1.210   19.140
     164     1    3.180    2.310   19.850
     165     1    3.180    2.310   17.020
     166     1    2.310    3.180   17.730
     167     1    2.310    3.180   19.140
     168     1    1.210    3.730   19.850
     169     1    1.210    3.730   17.020
     170     1    0.000    3.930   17.730
     171     1    0.000    3.930   19.140
     172     1   -1.210    3.730   19.850
     173     1   -1.210    3.730   17.020
     174     1   -2.310    3.180   17.730
     175     1   -2.310    3.180   19.140
     176     1   -3.180    2.310   19.850
     177     1   -3.180    2.310   17.020
     178     1   -3.730    1.210   17.730
     179     1   -3.730    1.210   19.140
     180     1   -3.930    0.000   19.850
     181     1   -3.930    0.000   17.020
     182     1   -3.730   -1.210   17.730
     183     1   -3.730   -1.210   19.140
     184     1   -3.180   -2.310   19.850
     185     1   -3.180   -2.310   17.020
     186     1   -2.310   -3.180   17.730
     187     1   -2.310   -3.180   19.140
     188     1   -1.210   -3.730   19.850
     189     1   -1.210   -3.730   17.020
     190     1   -0.000   -3.930   17.730
     191     1   -0.000   -3.930   19.140
     192     1    1.210   -3.730   19.850
     193     1    1.210   -3.730   17.020
     194     1    2.310   -3.180   17.730
     195     1    2.310   -3.180   19.140
     196     1    3.180   -2.310   19.850
     197     1    3.180   -2.310   17.020
     198     1    3.730   -1.210   17.730
     199     1    3.730   -1.210   19.140
     200     1    3.930   -0.000   19.850
     201     1    3.930    0.000   21.270
     202     1    3.730    1.210   21.980
     203     1    3.730    1.210   23.400
     204     1    3.180    2.310   24.110
     205     1    3.180    2.310   21.270
     206     1    2.310    3.180   21.980
     207     1    2.310    3.180   23.400
     208     1    1.210    3.730   24.110
     209     1    1.210    3.730   21.270
     210     1    0.000    3.930   21.980
     211     1    0.000    3.930   23.400
     212     1   -1.210    3.730   24.110
     213     1   -1.210    3.730   21.270
     214     1   -2.310    3.180   21.980
     215     1   -2.310    3.180   23.400
     216     1   -3.180    2.310   24.110
     217     1   -3.180    2.310   21.270
     218     1   -3.730    1.210   21.980
     219     1   -3.730    1.210   23.400
     220     1   -3.930    0.000   24.110
     221     1   -3.930    0.000   21.270
     222     1   -3.730   -1.210   21.980
     223     1   -3.730   -1.210   23.400
     224     1   -3.180   -2.310   24.110
     225     1   -3.180   -2.310   21.270
     226     1   -2.310   -3.180   21.980
     227     1   -2.310   -3.180   23.400
     228     1   -1.210   -3.730   24.110
     229     1   -1.210   -3.730   21.270
     230     1   -0.000   -3.930   21.980
     231     1   -0.000   -3.930   23.400
     232     1    1.210   -3.730   24.110
     233     1    1.210   -3.730   21.270
     234     1    2.310   -3.180   21.980
     235     1    2.310   -3.180   23.400
     236     1    3.180   -2.310   24.110
     237     1    3.180   -2.310   21.270
     238     1    3.730   -1.210   21.980
     239     1    3.730   -1.210   23.400
     240     1    3.930   -0.000   24.110
     241     1    3.930    0.000   25.520
     242     1    3.730    1.210   26.230
     243     1    3.730    1.210   27.650
     244     1    3.180    2.310   28.360
     245     1    3.180    2.310   25.520
     246     1    2.310    3.180   26.230
     247     1    2.310    3.180   27.650
     248     1    1.210    3.730   28.360
     249     1    1.210    3.730   25.520
     250     1    0.000    3.930   26.230
     251     1    0.000    3.930   27.650
     252     1   -1.210    3.730   28.360
     253     1   -1.210    3.730   25.520
     254     1   -2.310    3.180   26.230
     255     1   -2.310    3.180   27.650
     256     1   -3.180    2.310   28.360
     257     1   -3.180    2.310   25.520
     258     1   -3.730    1.210   26.230
     259     1   -3.730    1.210   27.650
     260     1   -3.930    0.000   28.360
     261     1   -3.930    0.000   25.520
     262     1   -3.730   -1.210   26.230
     263     1   -3.730   -1.210   27.650
     264     1   -3.180   -2.310   28.360
     265     1   -3.180   -2.310   25.520
     266     1   -2.310   -3.180   26.230
     267     1   -2.310   -3.180   27.650
     268     1   -1.210   -3.730   28.360
     269     1   -1.210   -3.730   25.520
     270     1   -0.000   -3.930   26.230
     271     1   -0.000   -3.930   27.650
     272     1    1.210   -3.730   28.360
     273     1    1.210   -3.730   25.520
     274     1    2.310   -3.180   26.230
     275     1    2.310   -3.180   27.650
     276     1    3.180   -2.310   28.360
     277     1    3.180   -2.310   25.520
     278     1    3.730   -1.210   26.230
     279     1    3.730   -1.210   27.650
     280     1    3.930   -0.000   28.360
     281     2    5.480    0.000   32.360
     282     2    5.350    1.220   33.070
     283     2    5.350    1.220   34.490
     284     2    4.940    2.380   35.200
     285     2    4.940    2.380   32.360
     286     2    4.290    3.420   33.070
     287     2    4.290    3.420   34.490
     288     2    3.420    4.290   35.200
     289     2    3.420    4.290   32.360
     290     2    2.380    4.940   33.070
     291     2    2.380    4.940   34.490
     292     2    1.220    5.350   35.200
     293     2    1.220    5.350   32.360
     294     2    0.000    5.480   33.070
     295     2    0.000    5.480   34.490
     296     2   -1.220    5.350   35.200
     297     2   -1.220    5.350   32.360
     298     2   -2.380    4.940   33.070
     299     2   -2.380    4.940   34.490
     300     2   -3.420    4.290   35.200
     301     2   -3.420    4.290   32.360
     302     2   -4.290    3.420   33.070
     303     2   -4.290    3.420   34.490
     304     2   -4.940    2.380   35.200
     305     2   -4.940    2.380   32.360
     306     2   -5.350    1.220   33.070
     307     2   -5.350    1.220   34.490
     308     2   -5.480    0.000   35.200
     309     2   -5.480    0.000   32.360
     310     2   -5.350   -1.220   33.070
     311     2   -5.350   -1.220   34.490
     312     2   -4.940   -2.380   35.200
     313     2   -4.940   -2.380   32.360
     314     2   -4.290   -3.420   33.070
     315     2   -4.290   -3.420   34.490
     316     2   -3.420   -4.290   35.200
     317     2   -3.420   -4.290   32.360
     318     2   -2.380   -4.940   33.070
     319     2   -2.380   -4.940   34.490
     320     2   -1.220   -5.350   35.200
     321     2   -1.220   -5.350   32.360
     322     2   -0.000   -5.480   33.070
     323     2   -0.000   -5.480   34.490
     324     2    1.220   -5.350   35.200
     325     2    1.220   -5.350   32.360
     326     2    2.380   -4.940   33.070
     327     2    2.380   -4.940   34.490
     328     2    3.420   -4.290   35.200
     329     2    3.420   -4.290   32.360
     330     2    4.290   -3.420   33.070
     331     2    4.290   -3.420   34.490
     332     2    4.940   -2.380   35.200
     333     2    4.940   -2.380   32.360
     334     2    5.350   -1.220   33.070
     335     2    5.350   -1.220   34.490
     336     2    5.480   -0.000   35.200
     337     2    5.480    0.000   36.610
     338     2    5.350    1.220   37.320
     339     2    5.350    1.220   38.740
     340     2    4.940    2.380   39.450
     341     2    4.940    2.380   36.610
     342     2    4.290    3.420   37.320
     343     2    4.290    3.420   38.740
     344     2    3.420    4.290   39.450
     345     2    3.420    4.290   36.610
     346     2    2.380    4.940   37.320
     347     2    2.380    4.940   38.740
     348     2    1.220    5.350   39.450
     349     2    1.220    5.350   36.610
     350     2    0.000    5.480   37.320
     351     2    0.000    5.480   38.740
     352     2   -1.220    5.350   39.450
     353     2   -1.220    5.350   36.610
     354     2   -2.380    4.940   37.320
     355     2   -2.380    4.940   38.740
     356     2   -3.420    4.290   39.450
     357     2   -3.420    4.290   36.610
     358     2   -4.290    3.420   37.320
     359     2   -4.290    3.420   38.740
     360     2   -4.940    2.380   39.450
     361     2   -4.940    2.380   36.610
     362     2   -5.350    1.220   37.320
     363     2   -5.350    1.220   38.740
     364     2   -5.480    0.000   39.450
     365     2   -5.480    0.000   36.610
     366     2   -5.350   -1.220   37.320
     367     2   -5.350   -1.220   38.740
     368     2   -4.940   -2.380   39.450
     369     2   -4.940   -2.380   36.610
     370     2   -4.290   -3.420   37.320
     371     2   -4.290   -3.420   38.740
     372     2   -3.420   -4.290   39.450
     373     2   -3.420   -4.290   36.610
     374     2   -2.380   -4.940   37.320
     375     2   -2.380   -4.940   38.740
     376     2   -1.220   -5.350   39.450
     377     2   -1.220   -5.350   36.610
     378     2   -0.000   -5.480   37.320
     379     2   -0.000   -5.480   38.740
     380     2    1.220   -5.350   39.450
     381     2    1.220   -5.350   36.610
     382     2    2.380   -4.940   37.320
     383     2    2.380   -4.940   38.740
     384     2    3.420   -4.290   39.450
     385     2    3.420   -4.290   36.610
     386     2    4.290   -3.420   37.320
     387     2    4.290   -3.420   38.740
     388     2    4.940   -2.380   39.450
     389     2    4.940   -2.380   36.610
     390     2    5.350   -1.220   37.320
     391     2    5.350   -1.220   38.740
     392     2    5.480   -0.000   39.450
     393     2    5.480    0.000   40.870
     394     2    5.350    1.220   41.580
     395     2    5.350    1.220   43.000
     396     2    4.940    2.380   43.700
     397     2    4.940    2.380   40.870
     398     2    4.290    3.420   41.580
     399     2    4.290    3.420   43.000
     400     2    3.420    4.290   43.700
     401     2    3.420    4.290   40.870
     402     2    2.380    4.940   41.580
     403     2    2.380    4.940   43.000
     404     2    1.220    5.350   43.700
     405     2    1.220    5.350   40.870
     406     2    0.000    5.480   41.580
     407     2    0.000    5.480   43.000
     408     2   -1.220    5.350   43.700
     409     2   -1.220    5.350   40.870
     410     2   -2.380    4.940   41.580
     411     2   -2.380    4.940   43.000
     412     2   -3.420    4.290   43.700
     413     2   -3.420    4.290   40.870
     414     2   -4.290    3.420   41.580
     415     2   -4.290    3.420   43.000
     416     2   -4.940    2.380   43.700
     417     2   -4.940    2.380   40.870
     418     2   -5.350    1.220   41.580
     419     2   -5.350    1.220   43.000
     420     2   -5.480    0.000   43.700
     421     2   -5.480    0.000   40.870
     422     2   -5.350   -1.220   41.580
     423     2   -5.350   -1.220   43.000
     424     2   -4.940   -2.380   43.700
     425     2   -4.940   -2.380   40.870
     426     2   -4.290   -3.420   41.580
     427     2   -4.290   -3.420   43.000
     428     2   -3.420   -4.290   43.700
     429     2   -3.420   -4.290   40.870
     430     2   -2.380   -4.940   41.580
     431     2   -2.380   -4.940   43.000
     432     2   -1.220   -5.350   43.700
     433     2   -1.220   -5.350   40.870
     434     2   -0.000   -5.480   41.580
     435     2   -0.000   -5.480   43.000
     436     2    1.220   -5.350   43.700
     437     2    1.220   -5.350   40.870
     438     2    2.380   -4.940   41.580
     439     2    2.380   -4.940   43.000
     440     2    3.420   -4.290   43.700
     441     2    3.420   -4.290   40.870
     442     2    4.290   -3.420   41.580
     443     2    4.290   -3.420   43.000
     444     2    4.940   -2.380   43.700
     445     2    4.940   -2.380   40.870
     446     2    5.350   -1.220   41.580
     447     2    5.350   -1.220   43.000
     448     2    5.480   -0.000   43.700
     449     2    5.480    0.000   45.120
     450     2    5.350    1.220   45.830
     451     2    5.350    1.220   47.250
     452     2    4.940    2.380   47.960
     453     2    4.940    2.380   45.120
     454     2    4.290    3.420   45.830
     455     2    4.290    3.420   47.250
     456     2    3.420    4.290   47.960
     457     2    3.420    4.290   45.120
     458     2    2.380    4.940   45.830
     459     2    2.380    4.940   47.250
     460     2    1.220    5.350   47.960
     461     2    1.220    5.350   45.120
     462     2    0.000    5.480   45.830
     463     2    0.000    5.480   47.250
     464     2   -1.220    5.350   47.960
     465     2   -1.220    5.350   45.120
     466     2   -2.380    4.940   45.830
     467     2   -2.380    4.940   47.250
     468     2   -3.420    4.290   47.960
     469     2   -3.420    4.290   45.120
     470     2   -4.290    3.420   45.830
     471     2   -4.290    3.420   47.250
     472     2   -4.940    2.380   47.960
     473     2   -4.940    2.380   45.120
     474     2   -5.350    1.220   45.830
     475     2   -5.350    1.220   47.250
     476     2   -5.480    0.000   47.960
     477     2   -5.480    0.000   45.120
     478     2   -5.350   -1.220   45.830
     479     2   -5.350   -1.220   47.250
     480     2   -4.940   -2.380   47.960
     481     2   -4.940   -2.380   45.120
     482     2   -4.290   -3.420   45.830
     483     2   -4.290   -3.420   47.250
     484     2   -3.420   -4.290   47.960
     485     2   -3.420   -4.290   45.120
     486     2   -2.380   -4.940   45.830
     487     2   -2.380   -4.940   47.250
     488     2   -1.220   -5.350   47.960
     489     2   -1.220   -5.350   45.120
     490     2   -0.000   -5.480   45.830
     491     2   -0.000   -5.480   47.250
     492     2    1.220   -5.350   47.960
     493     2    1.220   -5.350   45.120
     494     2    2.380   -4.940   45.830
     495     2    2.380   -4.940   47.250
     496     2    3.420   -4.290   47.960
     497     2    3.420   -4.290   45.120
     498     2    4.290   -3.420   45.830
     499     2    4.290   -3.420   47.250
     500     2    4.940   -2.380   47.960
     501     2    4.940   -2.380   45.120
     502     2    5.350   -1.220   45.830
     503     2    5.350   -1.220   47.250
     504     2    5.480   -0.000   47.960
     505     2    5.480    0.000   49.380
     506     2    5.350    1.220   50.090
     507     2    5.350    1.220   51.500
     508     2    4.940    2.380   52.210
     509     2    4.940    2.380   49.380
     510     2    4.290    3.420   50.090
     511     2    4.290    3.420   51.500
     512     2    3.420    4.290   52.210
     513     2    3.420    4.290   49.380
     514     2    2.380    4.940   50.090
     515     2    2.380    4.940   51.500
     516     2    1.220    5.350   52.210
     517     2    1.220    5.350   49.380
     518     2    0.000    5.480   50.090
     519     2    0.000    5.480   51.500
     520     2   -1.220    5.350   52.210
     521     2   -1.220    5.350   49.380
     522     2   -2.380    4.940   50.090
     523     2   -2.380    4.940   51.500
     524     2   -3.420    4.290   52.210
     525     2   -3.420    4.290   49.380
     526     2   -4.290    3.420   50.090
     527     2   -4.290    3.420   51.500
     528     2   -4.940    2.380   52.210
     529     2   -4.940    2.380   49.380
     530     2   -5.350    1.220   50.090
     531     2   -5.350    1.220   51.500
     532     2   -5.480    0.000   52.210
     533     2   -5.480    0.000   49.380
     534     2   -5.350   -1.220   50.090
     535     2   -5.350   -1.220   51.500
     536     2   -4.940   -2.380   52.210
     537     2   -4.940   -2.380   49.380
     538     2   -4.290   -3.420   50.090
     539     2   -4.290   -3.420   51.500
     540     2   -3.420   -4.290   52.210
     541     2   -3.420   -4.290   49.380
     542     2   -2.380   -4.940   50.090
     543     2   -2.380   -4.940   51.500
     544     2   -1.220   -5.350   52.210
     545     2   -1.220   -5.350   49.380
     546     2   -0.000   -5.480   50.090
     547     2   -0.000   -5.480   51.500
     548     2    1.220   -5.350   52.210
     549     2    1.220   -5.350   49.380
     550     2    2.380   -4.940   50.090
     551     2    2.380   -4.940   51.500
     552     2    3.420   -4.290   52.210
     553     2    3.420   -4.290   49.380
     554     2    4.290   -3.420   50.090
     555     2    4.290   -3.420   51.500
     556     2    4.940   -2.380   52.210
     557     2    4.940   -2.380   49.380
     558     2    5.350   -1.220   50.090
     559     2    5.350   -1.220   51.500
     560     2    5.480   -0.000   52.210
     561     2    5.480    0.000   53.630
     562     2    5.350    1.220   54.340
     563     2    5.350    1.220   55.760
     564     2    4.940    2.380   56.470
     565     2    4.940    2.380   53.630
     566     2    4.290    3.420   54.340
     567     2    4.290    3.420   55.760
     568     2    3.420    4.290   56.470
     569     2    3.420    4.290   53.630
     570     2    2.380    4.940   54.340
     571     2    2.380    4.940   55.760
     572     2    1.220    5.350   56.470
     573     2    1.220    5.350   53.630
     574     2    0.000    5.480   54.340
     575     2    0.000    5.480   55.760
     576     2   -1.220    5.350   56.470
     577     2   -1.220    5.350   53.630
     578     2   -2.380    4.940   54.340
     579     2   -2.380    4.940   55.760
     580     2   -3.420    4.290   56.470
     581     2   -3.420    4.290   53.630
     582     2   -4.290    3.420   54.340
     583     2   -4.290    3.420   55.760
     584     2   -4.940    2.380   56.470
     585     2   -4.940    2.380   53.630
     586     2   -5.350    1.220   54.340
     587     2   -5.350    1.220   55.760
     588     2   -5.480    0.000   56.470
     589     2   -5.480    0.000   53.630
     590     2   -5.350   -1.220   54.340
     591     2   -5.350   -1.220   55.760
     592     2   -4.940   -2.380   56.470
     593     2   -4.940   -2.380   53.630
     594     2   -4.290   -3.420   54.340
     595     2   -4.290   -3.420   55.760
     596     2   -3.420   -4.290   56.470
     597     2   -3.420   -4.290   53.630
     598     2   -2.380   -4.940   54.340
     599     2   -2.380   -4.940   55.760
     600     2   -1.220   -5.350   56.470
     601     2   -1.220   -5.350   53.630
     602     2   -0.000   -5.480   54.340
     603     2   -0.000   -5.480   55.760
     604     2    1.220   -5.350   56.470
     605     2    1.220   -5.350   53.630
     606     2    2.380   -4.940   54.340
     607     2    2.380   -4.940   55.760
     608     2    3.420   -4.290   56.470
     609     2    3.420   -4.290   53.630
     610     2    4.290   -3.420   54.340
     611     2    4.290   -3.420   55.760
     612     2    4.940   -2.380   56.470
     613     2    4.940   -2.380   53.630
     614     2    5.350   -1.220   54.340
     615     2    5.350   -1.220   55.760
     616     2    5.480   -0.000   56.470
     617     2    5.480    0.000   57.880
     618     2    5.350    1.220   58.590
     619     2    5.350    1.220   60.010
     620     2    4.940    2.380   60.720
     621     2    4.940    2.380   57.880
     622     2    4.290    3.420   58.590
     623     2    4.290    3.420   60.010
     624     2    3.420    4.290   60.720
     625     2    3.420    4.290   57.880
     626     2    2.380    4.940   58.590
     627     2    2.380    4.940   60.010
     628     2    1.220    5.350   60.720
     629     2    1.220    5.350   57.880
     630     2    0.000    5.480   58.590
     631     2    0.000    5.480   60.010
     632     2   -1.220    5.350   60.720
     633     2   -1.220    5.350   57.880
     634     2   -2.380    4.940   58.590
     635     2   -2.380    4.940   60.010
     636     2   -3.420    4.290   60.720
     637     2   -3.420    4.290   57.880
     638     2   -4.290    3.420   58.590
     639     2   -4.290    3.420   60.010
     640     2   -4.940    2.380   60.720
     641     2   -4.940    2.380   57.880
     642     2   -5.350    1.220   58.590
     643     2   -5.350    1.220   60.010
     644     2   -5.480    0.000   60.720
     645     2   -5.480    0.000   57.880
     646     2   -5.350   -1.220   58.590
     647     2   -5.350   -1.220   60.010
     648     2   -4.940   -2.380   60.720
     649     2   -4.940   -2.380   57.880
     650     2   -4.290   -3.420   58.590
     651     2   -4.290   -3.420   60.010
     652     2   -3.420   -4.290   60.720
     653     2   -3.420   -4.290   57.880
     654     2   -2.380   -4.940   58.590
     655     2   -2.380   -4.940   60.010
     656     2   -1.220   -5.350   60.720
     657     2   -1.220   -5.350   57.880
     658     2   -0.000   -5.480   58.590
     659     2   -0.000   -5.480   60.010
     660     2    1.220   -5.350   60.720
     661     2    1.220   -5.350   57.880
     662     2    2.380   -4.940   58.590
     663     2    2.380   -4.940   60.010
     664     2    3.420   -4.290   60.720
     665     2    3.420   -4.290   57.880
     666     2    4.290   -3.420   58.590
     667     2    4.290   -3.420   60.010
     668     2    4.940   -2.380   60.720
     669     2    4.940   -2.380   57.880
     670     2    5.350   -1.220   58.590
     671     2    5.350   -1.220   60.010
     672     2    5.480   -0.000   60.720
     673     2    5.480    0.000   62.140
     674     2    5.350    1.220   62.850
     675     2    5.350    1.220   64.270
     676     2    4.940    2.380   64.970
     677     2    4.940    2.380   62.140
     678     2    4.290    3.420   62.850
     679     2    4.290    3.420   64.270
     680     2    3.420    4.290   64.970
     681     2    3.420    4.290   62.140
     682     2    2.380    4.940   62.850
     683     2    2.380    4.940   64.270
     684     2    1.220    5.350   64.970
     685     2    1.220    5.350   62.140
     686     2    0.000    5.480   62.850
     687     2    0.000    5.480   64.270
     688     2   -1.220    5.350   64.970
     689     2   -1.220    5.350   62.140
     690     2   -2.380    4.940   62.850
     691     2   -2.380    4.940   64.270
     692     2   -3.420    4.290   64.970
     693     2   -3.420    4.290   62.140
     694     2   -4.290    3.420   62.850
     695     2   -4.290    3.420   64.270
     696     2   -4.940    2.380   64.970
     697     2   -4.940    2.380   62.140
     698     2   -5.350    1.220   62.850
     699     2   -5.350    1.220   64.270
     700     2   -5.480    0.000   64.970
     701     2   -5.480    0.000   62.140
     702     2   -5.350   -1.220   62.850
     703     2   -5.350   -1.220   64.270