# Two class nanotubes hydrogenated 
    5372   atoms

   20 atom types
  -50.00000    50.00000  xlo xhi
  -50.00000    50.00000  ylo yhi
  -50.00000   341.34000  zlo zhi

 Masses

  1 12.01070
  2 12.01070
  3 12.01070
  4 12.01070
  5 12.01070
  6 12.01070
  7 12.01070
  8 12.01070
  9 12.01070
 10 12.01070
 11  1.00794
 12  1.00794
 13  1.00794
 14  1.00794
 15  1.00794
 16  1.00794
 17  1.00794
 18  1.00794
 19  1.00794
 20  1.00794

Atoms

       1     1    8.610    0.000    0.000
       2     1    8.520    1.220    0.710
       3     1    8.520    1.220    2.130
       4     1    8.260    2.420    2.840
       5     1    8.260    2.420    0.000
       6     1    7.830    3.580    0.710
       7     1    7.830    3.580    2.130
       8     1    7.240    4.650    2.840
       9     1    7.240    4.650    0.000
      10     1    6.500    5.640    0.710
      11     1    6.500    5.640    2.130
      12     1    5.640    6.500    2.840
      13     1    5.640    6.500    0.000
      14     1    4.650    7.240    0.710
      15     1    4.650    7.240    2.130
      16     1    3.580    7.830    2.840
      17     1    3.580    7.830    0.000
      18     1    2.420    8.260    0.710
      19     1    2.420    8.260    2.130
      20     1    1.220    8.520    2.840
      21     1    1.220    8.520    0.000
      22     1    0.000    8.610    0.710
      23     1    0.000    8.610    2.130
      24     1   -1.220    8.520    2.840
      25     1   -1.220    8.520    0.000
      26     1   -2.420    8.260    0.710
      27     1   -2.420    8.260    2.130
      28     1   -3.580    7.830    2.840
      29     1   -3.580    7.830    0.000
      30     1   -4.650    7.240    0.710
      31     1   -4.650    7.240    2.130
      32     1   -5.640    6.500    2.840
      33     1   -5.640    6.500    0.000
      34     1   -6.500    5.640    0.710
      35     1   -6.500    5.640    2.130
      36     1   -7.240    4.650    2.840
      37     1   -7.240    4.650    0.000
      38     1   -7.830    3.580    0.710
      39     1   -7.830    3.580    2.130
      40     1   -8.260    2.420    2.840
      41     1   -8.260    2.420    0.000
      42     1   -8.520    1.220    0.710
      43     1   -8.520    1.220    2.130
      44     1   -8.610    0.000    2.840
      45     1   -8.610    0.000    0.000
      46     1   -8.520   -1.220    0.710
      47     1   -8.520   -1.220    2.130
      48     1   -8.260   -2.420    2.840
      49     1   -8.260   -2.420    0.000
      50     1   -7.830   -3.580    0.710
      51     1   -7.830   -3.580    2.130
      52     1   -7.240   -4.650    2.840
      53     1   -7.240   -4.650    0.000
      54     1   -6.500   -5.640    0.710
      55     1   -6.500   -5.640    2.130
      56     1   -5.640   -6.500    2.840
      57     1   -5.640   -6.500    0.000
      58     1   -4.650   -7.240    0.710
      59     1   -4.650   -7.240    2.130
      60     1   -3.580   -7.830    2.840
      61     1   -3.580   -7.830    0.000
      62     1   -2.420   -8.260    0.710
      63     1   -2.420   -8.260    2.130
      64     1   -1.220   -8.520    2.840
      65     1   -1.220   -8.520    0.000
      66     1   -0.000   -8.610    0.710
      67     1   -0.000   -8.610    2.130
      68     1    1.220   -8.520    2.840
      69     1    1.220   -8.520    0.000
      70     1    2.420   -8.260    0.710
      71     1    2.420   -8.260    2.130
      72     1    3.580   -7.830    2.840
      73     1    3.580   -7.830    0.000
      74     1    4.650   -7.240    0.710
      75     1    4.650   -7.240    2.130
      76     1    5.640   -6.500    2.840
      77     1    5.640   -6.500    0.000
      78     1    6.500   -5.640    0.710
      79     1    6.500   -5.640    2.130
      80     1    7.240   -4.650    2.840
      81     1    7.240   -4.650    0.000
      82     1    7.830   -3.580    0.710
      83     1    7.830   -3.580    2.130
      84     1    8.260   -2.420    2.840
      85     1    8.260   -2.420    0.000
      86     1    8.520   -1.220    0.710
      87     1    8.520   -1.220    2.130
      88     1    8.610   -0.000    2.840
      89     1    8.610    0.000    4.250
      90     1    8.520    1.220    4.960
      91     1    8.520    1.220    6.380
      92     1    8.260    2.420    7.090
      93     1    8.260    2.420    4.250
      94     1    7.830    3.580    4.960
      95     1    7.830    3.580    6.380
      96     1    7.240    4.650    7.090
      97     1    7.240    4.650    4.250
      98     1    6.500    5.640    4.960
      99     1    6.500    5.640    6.380
     100     1    5.640    6.500    7.090
     101     1    5.640    6.500    4.250
     102     1    4.650    7.240    4.960
     103     1    4.650    7.240    6.380
     104     1    3.580    7.830    7.090
     105     1    3.580    7.830    4.250
     106     1    2.420    8.260    4.960
     107     1    2.420    8.260    6.380
     108     1    1.220    8.520    7.090
     109     1    1.220    8.520    4.250
     110     1    0.000    8.610    4.960
     111     1    0.000    8.610    6.380
     112     1   -1.220    8.520    7.090
     113     1   -1.220    8.520    4.250
     114     1   -2.420    8.260    4.960
     115     1   -2.420    8.260    6.380
     116     1   -3.580    7.830    7.090
     117     1   -3.580    7.830    4.250
     118     1   -4.650    7.240    4.960
     119     1   -4.650    7.240    6.380
     120     1   -5.640    6.500    7.090
     121     1   -5.640    6.500    4.250
     122     1   -6.500    5.640    4.960
     123     1   -6.500    5.640    6.380
     124     1   -7.240    4.650    7.090
     125     1   -7.240    4.650    4.250
     126     1   -7.830    3.580    4.960
     127     1   -7.830    3.580    6.380
     128     1   -8.260    2.420    7.090
     129     1   -8.260    2.420    4.250
     130     1   -8.520    1.220    4.960
     131     1   -8.520    1.220    6.380
     132     1   -8.610    0.000    7.090
     133     1   -8.610    0.000    4.250
     134     1   -8.520   -1.220    4.960
     135     1   -8.520   -1.220    6.380
     136     1   -8.260   -2.420    7.090
     137     1   -8.260   -2.420    4.250
     138     1   -7.830   -3.580    4.960
     139     1   -7.830   -3.580    6.380
     140     1   -7.240   -4.650    7.090
     141     1   -7.240   -4.650    4.250
     142     1   -6.500   -5.640    4.960
     143     1   -6.500   -5.640    6.380
     144     1   -5.640   -6.500    7.090
     145     1   -5.640   -6.500    4.250
     146     1   -4.650   -7.240    4.960
     147     1   -4.650   -7.240    6.380
     148     1   -3.580   -7.830    7.090
     149     1   -3.580   -7.830    4.250
     150     1   -2.420   -8.260    4.960
     151     1   -2.420   -8.260    6.380
     152     1   -1.220   -8.520    7.090
     153     1   -1.220   -8.520    4.250
     154     1   -0.000   -8.610    4.960
     155     1   -0.000   -8.610    6.380
     156     1    1.220   -8.520    7.090
     157     1    1.220   -8.520    4.250
     158     1    2.420   -8.260    4.960
     159     1    2.420   -8.260    6.380
     160     1    3.580   -7.830    7.090
     161     1    3.580   -7.830    4.250
     162     1    4.650   -7.240    4.960
     163     1    4.650   -7.240    6.380
     164     1    5.640   -6.500    7.090
     165     1    5.640   -6.500    4.250
     166     1    6.500   -5.640    4.960
     167     1    6.500   -5.640    6.380
     168     1    7.240   -4.650    7.090
     169     1    7.240   -4.650    4.250
     170     1    7.830   -3.580    4.960
     171     1    7.830   -3.580    6.380
     172     1    8.260   -2.420    7.090
     173     1    8.260   -2.420    4.250
     174     1    8.520   -1.220    4.960
     175     1    8.520   -1.220    6.380
     176     1    8.610   -0.000    7.090
     177     1    8.610    0.000    8.510
     178     1    8.520    1.220    9.220
     179     1    8.520    1.220   10.640
     180     1    8.260    2.420   11.340
     181     1    8.260    2.420    8.510
     182     1    7.830    3.580    9.220
     183     1    7.830    3.580   10.640
     184     1    7.240    4.650   11.340
     185     1    7.240    4.650    8.510
     186     1    6.500    5.640    9.220
     187     1    6.500    5.640   10.640
     188     1    5.640    6.500   11.340
     189     1    5.640    6.500    8.510
     190     1    4.650    7.240    9.220
     191     1    4.650    7.240   10.640
     192     1    3.580    7.830   11.340
     193     1    3.580    7.830    8.510
     194     1    2.420    8.260    9.220
     195     1    2.420    8.260   10.640
     196     1    1.220    8.520   11.340
     197     1    1.220    8.520    8.510
     198     1    0.000    8.610    9.220
     199     1    0.000    8.610   10.640
     200     1   -1.220    8.520   11.340
     201     1   -1.220    8.520    8.510
     202     1   -2.420    8.260    9.220
     203     1   -2.420    8.260   10.640
     204     1   -3.580    7.830   11.340
     205     1   -3.580    7.830    8.510
     206     1   -4.650    7.240    9.220
     207     1   -4.650    7.240   10.640
     208     1   -5.640    6.500   11.340
     209     1   -5.640    6.500    8.510
     210     1   -6.500    5.640    9.220
     211     1   -6.500    5.640   10.640
     212     1   -7.240    4.650   11.340
     213     1   -7.240    4.650    8.510
     214     1   -7.830    3.580    9.220
     215     1   -7.830    3.580   10.640
     216     1   -8.260    2.420   11.340
     217     1   -8.260    2.420    8.510
     218     1   -8.520    1.220    9.220
     219     1   -8.520    1.220   10.640
     220     1   -8.610    0.000   11.340
     221     1   -8.610    0.000    8.510
     222     1   -8.520   -1.220    9.220
     223     1   -8.520   -1.220   10.640
     224     1   -8.260   -2.420   11.340
     225     1   -8.260   -2.420    8.510
     226     1   -7.830   -3.580    9.220
     227     1   -7.830   -3.580   10.640
     228     1   -7.240   -4.650   11.340
     229     1   -7.240   -4.650    8.510
     230     1   -6.500   -5.640    9.220
     231     1   -6.500   -5.640   10.640
     232     1   -5.640   -6.500   11.340
     233     1   -5.640   -6.500    8.510
     234     1   -4.650   -7.240    9.220
     235     1   -4.650   -7.240   10.640
     236     1   -3.580   -7.830   11.340
     237     1   -3.580   -7.830    8.510
     238     1   -2.420   -8.260    9.220
     239     1   -2.420   -8.260   10.640
     240     1   -1.220   -8.520   11.340
     241     1   -1.220   -8.520    8.510
     242     1   -0.000   -8.610    9.220
     243     1   -0.000   -8.610   10.640
     244     1    1.220   -8.520   11.340
     245     1    1.220   -8.520    8.510
     246     1    2.420   -8.260    9.220
     247     1    2.420   -8.260   10.640
     248     1    3.580   -7.830   11.340
     249     1    3.580   -7.830    8.510
     250     1    4.650   -7.240    9.220
     251     1    4.650   -7.240   10.640
     252     1    5.640   -6.500   11.340
     253     1    5.640   -6.500    8.510
     254     1    6.500   -5.640    9.220
     255     1    6.500   -5.640   10.640
     256     1    7.240   -4.650   11.340
     257     1    7.240   -4.650    8.510
     258     1    7.830   -3.580    9.220
     259     1    7.830   -3.580   10.640
     260     1    8.260   -2.420   11.340
     261     1    8.260   -2.420    8.510
     262     1    8.520   -1.220    9.220
     263     1    8.520   -1.220   10.640
     264     1    8.610   -0.000   11.340
     265     1    8.610    0.000   12.760
     266     1    8.520    1.220   13.470
     267     1    8.520    1.220   14.890
     268     1    8.260    2.420   15.600
     269     1    8.260    2.420   12.760
     270     1    7.830    3.580   13.470
     271     1    7.830    3.580   14.890
     272     1    7.240    4.650   15.600
     273     1    7.240    4.650   12.760
     274     1    6.500    5.640   13.470
     275     1    6.500    5.640   14.890
     276     1    5.640    6.500   15.600
     277     1    5.640    6.500   12.760
     278     1    4.650    7.240   13.470
     279     1    4.650    7.240   14.890
     280     1    3.580    7.830   15.600
     281     1    3.580    7.830   12.760
     282     1    2.420    8.260   13.470
     283     1    2.420    8.260   14.890
     284     1    1.220    8.520   15.600
     285     1    1.220    8.520   12.760
     286     1    0.000    8.610   13.470
     287     1    0.000    8.610   14.890
     288     1   -1.220    8.520   15.600
     289     1   -1.220    8.520   12.760
     290     1   -2.420    8.260   13.470
     291     1   -2.420    8.260   14.890
     292     1   -3.580    7.830   15.600
     293     1   -3.580    7.830   12.760
     294     1   -4.650    7.240   13.470
     295     1   -4.650    7.240   14.890
     296     1   -5.640    6.500   15.600
     297     1   -5.640    6.500   12.760
     298     1   -6.500    5.640   13.470
     299     1   -6.500    5.640   14.890
     300     1   -7.240    4.650   15.600
     301     1   -7.240    4.650   12.760
     302     1   -7.830    3.580   13.470
     303     1   -7.830    3.580   14.890
     304     1   -8.260    2.420   15.600
     305     1   -8.260    2.420   12.760
     306     1   -8.520    1.220   13.470
     307     1   -8.520    1.220   14.890
     308     1   -8.610    0.000   15.600
     309     1   -8.610    0.000   12.760
     310     1   -8.520   -1.220   13.470
     311     1   -8.520   -1.220   14.890
     312     1   -8.260   -2.420   15.600
     313     1   -8.260   -2.420   12.760
     314     1   -7.830   -3.580   13.470
     315     1   -7.830   -3.580   14.890
     316     1   -7.240   -4.650   15.600
     317     1   -7.240   -4.650   12.760
     318     1   -6.500   -5.640   13.470
     319     1   -6.500   -5.640   14.890
     320     1   -5.640   -6.500   15.600
     321     1   -5.640   -6.500   12.760
     322     1   -4.650   -7.240   13.470
     323     1   -4.650   -7.240   14.890
     324     1   -3.580   -7.830   15.600
     325     1   -3.580   -7.830   12.760
     326     1   -2.420   -8.260   13.470
     327     1   -2.420   -8.260   14.890
     328     1   -1.220   -8.520   15.600
     329     1   -1.220   -8.520   12.760
     330     1   -0.000   -8.610   13.470
     331     1   -0.000   -8.610   14.890
     332     1    1.220   -8.520   15.600
     333     1    1.220   -8.520   12.760
     334     1    2.420   -8.260   13.470
     335     1    2.420   -8.260   14.890
     336     1    3.580   -7.830   15.600
     337     1    3.580   -7.830   12.760
     338     1    4.650   -7.240   13.470
     339     1    4.650   -7.240   14.890
     340     1    5.640   -6.500   15.600
     341     1    5.640   -6.500   12.760
     342     1    6.500   -5.640   13.470
     343     1    6.500   -5.640   14.890
     344     1    7.240   -4.650   15.600
     345     1    7.240   -4.650   12.760
     346     1    7.830   -3.580   13.470
     347     1    7.830   -3.580   14.890
     348     1    8.260   -2.420   15.600
     349     1    8.260   -2.420   12.760
     350     1    8.520   -1.220   13.470
     351     1    8.520   -1.220   14.890
     352     1    8.610   -0.000   15.600
     353     1    8.610    0.000   17.020
     354     1    8.520    1.220   17.730
     355     1    8.520    1.220   19.140
     356     1    8.260    2.420   19.850
     357     1    8.260    2.420   17.020
     358     1    7.830    3.580   17.730
     359     1    7.830    3.580   19.140
     360     1    7.240    4.650   19.850
     361     1    7.240    4.650   17.020
     362     1    6.500    5.640   17.730
     363     1    6.500    5.640   19.140
     364     1    5.640    6.500   19.850
     365     1    5.640    6.500   17.020
     366     1    4.650    7.240   17.730
     367     1    4.650    7.240   19.140
     368     1    3.580    7.830   19.850
     369     1    3.580    7.830   17.020
     370     1    2.420    8.260   17.730
     371     1    2.420    8.260   19.140
     372     1    1.220    8.520   19.850
     373     1    1.220    8.520   17.020
     374     1    0.000    8.610   17.730
     375     1    0.000    8.610   19.140
     376     1   -1.220    8.520   19.850
     377     1   -1.220    8.520   17.020
     378     1   -2.420    8.260   17.730
     379     1   -2.420    8.260   19.140
     380     1   -3.580    7.830   19.850
     381     1   -3.580    7.830   17.020
     382     1   -4.650    7.240   17.730
     383     1   -4.650    7.240   19.140
     384     1   -5.640    6.500   19.850
     385     1   -5.640    6.500   17.020
     386     1   -6.500    5.640   17.730
     387     1   -6.500    5.640   19.140
     388     1   -7.240    4.650   19.850
     389     1   -7.240    4.650   17.020
     390     1   -7.830    3.580   17.730
     391     1   -7.830    3.580   19.140
     392     1   -8.260    2.420   19.850
     393     1   -8.260    2.420   17.020
     394     1   -8.520    1.220   17.730
     395     1   -8.520    1.220   19.140
     396     1   -8.610    0.000   19.850
     397     1   -8.610    0.000   17.020
     398     1   -8.520   -1.220   17.730
     399     1   -8.520   -1.220   19.140
     400     1   -8.260   -2.420   19.850
     401     1   -8.260   -2.420   17.020
     402     1   -7.830   -3.580   17.730
     403     1   -7.830   -3.580   19.140
     404     1   -7.240   -4.650   19.850
     405     1   -7.240   -4.650   17.020
     406     1   -6.500   -5.640   17.730
     407     1   -6.500   -5.640   19.140
     408     1   -5.640   -6.500   19.850
     409     1   -5.640   -6.500   17.020
     410     1   -4.650   -7.240   17.730
     411     1   -4.650   -7.240   19.140
     412     1   -3.580   -7.830   19.850
     413     1   -3.580   -7.830   17.020
     414     1   -2.420   -8.260   17.730
     415     1   -2.420   -8.260   19.140
     416     1   -1.220   -8.520   19.850
     417     1   -1.220   -8.520   17.020
     418     1   -0.000   -8.610   17.730
     419     1   -0.000   -8.610   19.140
     420     1    1.220   -8.520   19.850
     421     1    1.220   -8.520   17.020
     422     1    2.420   -8.260   17.730
     423     1    2.420   -8.260   19.140
     424     1    3.580   -7.830   19.850
     425     1    3.580   -7.830   17.020
     426     1    4.650   -7.240   17.730
     427     1    4.650   -7.240   19.140
     428     1    5.640   -6.500   19.850
     429     1    5.640   -6.500   17.020
     430     1    6.500   -5.640   17.730
     431     1    6.500   -5.640   19.140
     432     1    7.240   -4.650   19.850
     433     1    7.240   -4.650   17.020
     434     1    7.830   -3.580   17.730
     435     1    7.830   -3.580   19.140
     436     1    8.260   -2.420   19.850
     437     1    8.260   -2.420   17.020
     438     1    8.520   -1.220   17.730
     439     1    8.520   -1.220   19.140
     440     1    8.610   -0.000   19.850
     441     1    8.610    0.000   21.270
     442     1    8.520    1.220   21.980
     443     1    8.520    1.220   23.400
     444     1    8.260    2.420   24.110
     445     1    8.260    2.420   21.270
     446     1    7.830    3.580   21.980
     447     1    7.830    3.580   23.400
     448     1    7.240    4.650   24.110
     449     1    7.240    4.650   21.270
     450     1    6.500    5.640   21.980
     451     1    6.500    5.640   23.400
     452     1    5.640    6.500   24.110
     453     1    5.640    6.500   21.270
     454     1    4.650    7.240   21.980
     455     1    4.650    7.240   23.400
     456     1    3.580    7.830   24.110
     457     1    3.580    7.830   21.270
     458     1    2.420    8.260   21.980
     459     1    2.420    8.260   23.400
     460     1    1.220    8.520   24.110
     461     1    1.220    8.520   21.270
     462     1    0.000    8.610   21.980
     463     1    0.000    8.610   23.400
     464     1   -1.220    8.520   24.110
     465     1   -1.220    8.520   21.270
     466     1   -2.420    8.260   21.980
     467     1   -2.420    8.260   23.400
     468     1   -3.580    7.830   24.110
     469     1   -3.580    7.830   21.270
     470     1   -4.650    7.240   21.980
     471     1   -4.650    7.240   23.400
     472     1   -5.640    6.500   24.110
     473     1   -5.640    6.500   21.270
     474     1   -6.500    5.640   21.980
     475     1   -6.500    5.640   23.400
     476     1   -7.240    4.650   24.110
     477     1   -7.240    4.650   21.270
     478     1   -7.830    3.580   21.980
     479     1   -7.830    3.580   23.400
     480     1   -8.260    2.420   24.110
     481     1   -8.260    2.420   21.270
     482     1   -8.520    1.220   21.980
     483     1   -8.520    1.220   23.400
     484     1   -8.610    0.000   24.110
     485     1   -8.610    0.000   21.270
     486     1   -8.520   -1.220   21.980
     487     1   -8.520   -1.220   23.400
     488     1   -8.260   -2.420   24.110
     489     1   -8.260   -2.420   21.270
     490     1   -7.830   -3.580   21.980
     491     1   -7.830   -3.580   23.400
     492     1   -7.240   -4.650   24.110
     493     1   -7.240   -4.650   21.270
     494     1   -6.500   -5.640   21.980
     495     1   -6.500   -5.640   23.400
     496     1   -5.640   -6.500   24.110
     497     1   -5.640   -6.500   21.270
     498     1   -4.650   -7.240   21.980
     499     1   -4.650   -7.240   23.400
     500     1   -3.580   -7.830   24.110
     501     1   -3.580   -7.830   21.270
     502     1   -2.420   -8.260   21.980
     503     1   -2.420   -8.260   23.400
     504     1   -1.220   -8.520   24.110
     505     1   -1.220   -8.520   21.270
     506     1   -0.000   -8.610   21.980
     507     1   -0.000   -8.610   23.400
     508     1    1.220   -8.520   24.110
     509     1    1.220   -8.520   21.270
     510     1    2.420   -8.260   21.980
     511     1    2.420   -8.260   23.400
     512     1    3.580   -7.830   24.110
     513     1    3.580   -7.830   21.270
     514     1    4.650   -7.240   21.980
     515     1    4.650   -7.240   23.400
     516     1    5.640   -6.500   24.110
     517     1    5.640   -6.500   21.270
     518     1    6.500   -5.640   21.980
     519     1    6.500   -5.640   23.400
     520     1    7.240   -4.650   24.110
     521     1    7.240   -4.650   21.270
     522     1    7.830   -3.580   21.980
     523     1    7.830   -3.580   23.400
     524     1    8.260   -2.420   24.110
     525     1    8.260   -2.420   21.270
     526     1    8.520   -1.220   21.980
     527     1    8.520   -1.220   23.400
     528     1    8.610   -0.000   24.110
     529     1    8.610    0.000   25.520
     530     1    8.520    1.220   26.230
     531     1    8.520    1.220   27.650
     532     1    8.260    2.420   28.360
     533     1    8.260    2.420   25.520
     534     1    7.830    3.580   26.230
     535     1    7.830    3.580   27.650
     536     1    7.240    4.650   28.360
     537     1    7.240    4.650   25.520
     538     1    6.500    5.640   26.230
     539     1    6.500    5.640   27.650
     540     1    5.640    6.500   28.360
     541     1    5.640    6.500   25.520
     542     1    4.650    7.240   26.230
     543     1    4.650    7.240   27.650
     544     1    3.580    7.830   28.360
     545     1    3.580    7.830   25.520
     546     1    2.420    8.260   26.230
     547     1    2.420    8.260   27.650
     548     1    1.220    8.520   28.360
     549     1    1.220    8.520   25.520
     550     1    0.000    8.610   26.230
     551     1    0.000    8.610   27.650
     552     1   -1.220    8.520   28.360
     553     1   -1.220    8.520   25.520
     554     1   -2.420    8.260   26.230
     555     1   -2.420    8.260   27.650
     556     1   -3.580    7.830   28.360
     557     1   -3.580    7.830   25.520
     558     1   -4.650    7.240   26.230
     559     1   -4.650    7.240   27.650
     560     1   -5.640    6.500   28.360
     561     1   -5.640    6.500   25.520
     562     1   -6.500    5.640   26.230
     563     1   -6.500    5.640   27.650
     564     1   -7.240    4.650   28.360
     565     1   -7.240    4.650   25.520
     566     1   -7.830    3.580   26.230
     567     1   -7.830    3.580   27.650
     568     1   -8.260    2.420   28.360
     569     1   -8.260    2.420   25.520
     570     1   -8.520    1.220   26.230
     571     1   -8.520    1.220   27.650
     572     1   -8.610    0.000   28.360
     573     1   -8.610    0.000   25.520
     574     1   -8.520   -1.220   26.230
     575     1   -8.520   -1.220   27.650
     576     1   -8.260   -2.420   28.360
     577     1   -8.260   -2.420   25.520
     578     1   -7.830   -3.580   26.230
     579     1   -7.830   -3.580   27.650
     580     1   -7.240   -4.650   28.360
     581     1   -7.240   -4.650   25.520
     582     1   -6.500   -5.640   26.230
     583     1   -6.500   -5.640   27.650
     584     1   -5.640   -6.500   28.360
     585     1   -5.640   -6.500   25.520
     586     1   -4.650   -7.240   26.230
     587     1   -4.650   -7.240   27.650
     588     1   -3.580   -7.830   28.360
     589     1   -3.580   -7.830   25.520
     590     1   -2.420   -8.260   26.230
     591     1   -2.420   -8.260   27.650
     592     1   -1.220   -8.520   28.360
     593     1   -1.220   -8.520   25.520
     594     1   -0.000   -8.610   26.230
     595     1   -0.000   -8.610   27.650
     596     1    1.220   -8.520   28.360
     597     1    1.220   -8.520   25.520
     598     1    2.420   -8.260   26.230
     599     1    2.420   -8.260   27.650
     600     1    3.580   -7.830   28.360
     601     1    3.580   -7.830   25.520
     602     1    4.650   -7.240   26.230
     603     1    4.650   -7.240   27.650
     604     1    5.640   -6.500   28.360
     605     1    5.640   -6.500   25.520
     606     1    6.500   -5.640   26.230
     607     1    6.500   -5.640   27.650
     608     1    7.240   -4.650   28.360
     609     1    7.240   -4.650   25.520
     610     1    7.830   -3.580   26.230
     611     1    7.830   -3.580   27.650
     612     1    8.260   -2.420   28.360
     613     1    8.260   -2.420   25.520
     614     1    8.520   -1.220   26.230
     615     1    8.520   -1.220   27.650
     616     1    8.610   -0.000   28.360
     617     1    8.610    0.000   29.780
     618     1    8.520    1.220   30.490
     619     1    8.520    1.220   31.910
     620     1    8.260    2.420   32.610
     621     1    8.260    2.420   29.780
     622     1    7.830    3.580   30.490
     623     1    7.830    3.580   31.910
     624     1    7.240    4.650   32.610
     625     1    7.240    4.650   29.780
     626     1    6.500    5.640   30.490
     627     1    6.500    5.640   31.910
     628     1    5.640    6.500   32.610
     629     1    5.640    6.500   29.780
     630     1    4.650    7.240   30.490
     631     1    4.650    7.240   31.910
     632     1    3.580    7.830   32.610
     633     1    3.580    7.830   29.780
     634     1    2.420    8.260   30.490
     635     1    2.420    8.260   31.910
     636     1    1.220    8.520   32.610
     637     1    1.220    8.520   29.780
     638     1    0.000    8.610   30.490
     639     1    0.000    8.610   31.910
     640     1   -1.220    8.520   32.610
     641     1   -1.220    8.520   29.780
     642     1   -2.420    8.260   30.490
     643     1   -2.420    8.260   31.910
     644     1   -3.580    7.830   32.610
     645     1   -3.580    7.830   29.780
     646     1   -4.650    7.240   30.490
     647     1   -4.650    7.240   31.910
     648     1   -5.640    6.500   32.610
     649     1   -5.640    6.500   29.780
     650     1   -6.500    5.640   30.490
     651     1   -6.500    5.640   31.910
     652     1   -7.240    4.650   32.610
     653     1   -7.240    4.650   29.780
     654     1   -7.830    3.580   30.490
     655     1   -7.830    3.580   31.910
     656     1   -8.260    2.420   32.610
     657     1   -8.260    2.420   29.780
     658     1   -8.520    1.220   30.490
     659     1   -8.520    1.220   31.910
     660     1   -8.610    0.000   32.610
     661     1   -8.610    0.000   29.780
     662     1   -8.520   -1.220   30.490
     663     1   -8.520   -1.220   31.910
     664     1   -8.260   -2.420   32.610
     665     1   -8.260   -2.420   29.780
     666     1   -7.830   -3.580   30.490
     667     1   -7.830   -3.580   31.910
     668     1   -7.240   -4.650   32.610
     669     1   -7.240   -4.650   29.780
     670     1   -6.500   -5.640   30.490
     671     1   -6.500   -5.640   31.910
     672     1   -5.640   -6.500   32.610
     673     1   -5.640   -6.500   29.780
     674     1   -4.650   -7.240   30.490
     675     1   -4.650   -7.240   31.910
     676     1   -3.580   -7.830   32.610
     677     1   -3.580   -7.830   29.780
     678     1   -2.420   -8.260   30.490
     679     1   -2.420   -8.260   31.910
     680     1   -1.220   -8.520   32.610
     681     1   -1.220   -8.520   29.780
     682     1   -0.000   -8.610   30.490
     683     1   -0.000   -8.610   31.910
     684     1    1.220   -8.520   32.610
     685     1    1.220   -8.520   29.780
     686     1    2.420   -8.260   30.490
     687     1    2.420   -8.260   31.910
     688     1    3.580   -7.830   32.610
     689     1    3.580   -7.830   29.780
     690     1    4.650   -7.240   30.490
     691     1    4.650   -7.240   31.910
     692     1    5.640   -6.500   32.610
     693     1    5.640   -6.500   29.780
     694     1    6.500   -5.640   30.490
     695     1    6.500   -5.640   31.910
     696     1    7.240   -4.650   32.610
     697     1    7.240   -4.650   29.780
     698     1    7.830   -3.580   30.490
     699     1    7.830   -3.580   31.910
     700     1    8.260   -2.420   32.610
     701     1    8.260   -2.420   29.780
     702     1    8.520   -1.220   30.490
     703     1    8.520   -1.220   31.910